53
 energy: -92.061707856273 gnorm: 0.000998784064 xtb: 6.7.0 (a73499f)
N            1.69896529946099        0.77620523940450       -0.89219945410995
C            2.30794083148042       -0.33290360395518       -1.64964201230410
C            1.39666750473609       -1.55659583689290       -1.81761692065644
N            0.93957396834874       -2.13558868637948       -0.54392830019628
C           -0.01554051354113       -3.23008390706802       -0.78821436730871
C           -1.33988650582334       -2.75124637764299       -1.39105629284733
N           -1.82661261423347       -1.51998001719081       -0.75019162047452
C           -2.54641135329828       -0.68207201578549       -1.71946345892105
C           -2.57187348144069        0.78397084076614       -1.29237119028684
N           -1.24328021523831        1.27996073289547       -0.89192722933358
C           -0.41323432750900        1.52664736383352       -2.08067487253115
C            1.05973482357475        1.79103041250764       -1.75108165907305
C            2.69821301704337        1.46135108999202       -0.06702394545982
C            1.97486478723356        2.31079959181950        1.08209465559532
O            0.94331624939540        1.76289935292866        1.52400829622763
O            2.48518580547277        3.37834244946298        1.34211452151105
C            2.07015992478438       -2.65930138521275        0.22659178617589
C            2.71961911841555       -1.52940556135581        1.12900203369868
O            3.92946282974853       -1.39559775151500        1.04787835517680
O            1.88565411029185       -0.88582815911864        1.80076488623735
C           -2.70284907905833       -1.85841835524887        0.37803481490844
C           -1.87933486223713       -2.59374212186629        1.52099911489827
O           -2.25320150487442       -3.70793518548246        1.83126994370812
O           -0.90258684998129       -1.92926469982116        1.94400058279059
C           -1.46419574374904        2.49667891505242       -0.10584378535368
C           -2.08612584991332        2.11069977189573        1.31933642242604
O           -1.80913410705928        0.94390809958764        1.68990760489162
O           -2.78261354874579        2.95573507017297        1.83641770840434
H            2.60162860066078        0.00644220152612       -2.65413188307286
H            3.21933170835561       -0.64676362983743       -1.13812212304183
H            1.96157112943403       -2.30863912208910       -2.39439518857819
H            0.51593259104545       -1.27253489417505       -2.39571321947506
H            0.42358430096738       -3.98143473260523       -1.46318283823076
H           -0.21976696043710       -3.71519323998765        0.16698586771859
H           -2.07106531401970       -3.56383025209906       -1.28573904075162
H           -1.20660724129076       -2.57530427870924       -2.46141021803281
H           -2.05224417599660       -0.76405030309577       -2.69100593971728
H           -3.58159457674310       -1.02851217093350       -1.85271159545783
H           -3.24096090023326        0.89776771458621       -0.43810548546493
H           -2.97865774198708        1.38913509536870       -2.11723511515707
H           -0.48484229950207        0.65346930237588       -2.73202230755032
H           -0.79187895035874        2.39670534122275       -2.64161963666356
H            1.12945718701477        2.75289356932639       -1.23915541216038
H            1.60573537366464        1.88979646411365       -2.70150812540736
H            3.31985014578414        2.15209607902260       -0.64883918159353
H            3.34408206048951        0.75663543165286        0.45901974183062
H            2.84663118825800       -3.09484298148012       -0.41443251392535
H            1.71940140770031       -3.41230995594985        0.93516081295726
H           -3.51999871864777       -2.52554447734381        0.06885436813846
H           -3.11049739020420       -0.94988661308801        0.82897755778079
H           -2.16047522865006        3.18813030273981       -0.59828014865735
H           -0.53213463762474        3.01895635158291        0.10805037780588
Eu          -0.03755927096178       -0.16978646790688        1.00106562891287
