1671
 xtbopt energy: -290.896946072761 gnorm: 0.000980352832 xtb: 6.7.0 (213ba8f)
N           28.85859473310583       73.89953189456749       58.72723914066858
C           30.03430191255755       73.30995461501026       58.02195459840750
C           31.17096010742735       74.29876070620745       58.08870284336854
O           30.96217785451422       75.45472507655117       57.78648895911497
C           29.71500048492114       72.97842383053177       56.57801090215496
H           30.33990563212932       72.39182697252387       58.55082114442248
H           28.64788310802872       74.81150485385450       58.30894456638961
H           28.02991558765627       73.29815990453402       58.65671840713231
H           29.07355458678786       74.05949571150913       59.71692825174958
H           30.59104339543038       72.58071530369554       56.06495637958676
H           29.40511513853997       73.87670567736494       56.04540150029187
H           28.90962982714068       72.24798002761662       56.50066100186819
N           32.40694335042505       73.84902827493781       58.48981358817408
C           33.55994398785899       74.70838551830272       58.39516055765786
C           34.17106680812336       74.67591250450562       57.01659458186094
O           33.83677942599585       73.87440344784893       56.16975293975388
C           34.62139201352353       74.34149274050102       59.43218589241201
O           35.24437316752476       73.11894219537368       59.13528546589681
H           32.62205132504869       72.84782214772993       58.59293599769764
H           33.19823297170745       75.73375316696014       58.57316463137236
H           35.41887415653726       75.09466183142106       59.45141587519468
H           34.19407367754592       74.29661969469730       60.44128938991905
H           34.58135749223174       72.38578018106419       59.14735976417602
N           35.15539438613354       75.61095498924205       56.83505019440543
C           35.99014301866175       75.65563367987319       55.66835167558249
C           37.07191578110825       74.62451730255843       55.67765926261728
O           37.79495178322103       74.52582062082159       54.70588516076185
H           35.44266578874841       76.21643653961156       57.62170062717015
H           36.45252224759719       76.64146717351844       55.62816084708954
H           35.36781229891517       75.52876386676208       54.78053185814561
N           37.21418198423351       73.84179452951342       56.80161221597405
C           38.01146019737098       72.62650126369982       56.76232857252749
C           37.19798923515257       71.50270244599216       56.16406663113987
O           37.71569834295200       70.74569669044328       55.37012515373952
C           38.54292622860846       72.26204740713381       58.13566869855434
H           36.47481389576723       73.80796953534571       57.52093991061523
H           38.84848774917703       72.82477277025423       56.07567177942629
H           39.14851596967173       71.35617948976586       58.09943869457514
H           37.71732581597946       72.08918083807156       58.82566413663274
H           39.15149066335896       73.06680344736644       58.54823236123310
N           35.89076379062809       71.38733812153123       56.56285990258358
C           35.01395786385034       70.34509306284410       56.04125443411371
C           34.86795963281069       70.51089693026779       54.55265527394715
O           34.77293598367337       69.54688314916777       53.82153267223932
C           33.65213318536684       70.34639017141521       56.71445561055462
C           33.76379443007129       70.08305979773648       58.19843794787065
O           34.27697000584842       69.01379617663639       58.52999135565389
O           33.34479002398140       70.96942768502997       58.94453976088775
H           35.50518073648992       72.00481291597730       57.28710489943675
H           35.51207069686749       69.38720775073573       56.23272933997122
H           33.17908302078023       71.31827678775014       56.55856522021499
H           33.00400193467588       69.59425054779220       56.25826272403317
N           34.82173673725135       71.80841784807971       54.11929539406808
C           34.58182753667464       72.12824882343435       52.72072525175189
C           35.82742943220978       71.89324556770184       51.89682060168125
O           35.73257506330506       71.79553253733863       50.68987862691131
C           34.06884953096450       73.54553119741418       52.57505217881976
H           34.67068325198520       72.56722817756990       54.80500324302147
H           33.82157009609888       71.41671838914412       52.36477838693974
H           33.73059624487676       73.75222568322033       51.56028976408375
H           33.23635901252679       73.72212055566852       53.25605899159778
H           34.85646599514353       74.25440072990429       52.82513894781457
N           37.03510918991008       71.81151621235728       52.55322700338208
C           38.21676979044246       71.34770490596968       51.84648630233441
C           38.20410841836845       69.84189776810054       51.72941778218600
O           38.54277331919561       69.32038298471934       50.68609214372957
C           39.50914514347566       71.82858413503649       52.49962704183744
C           39.63539608135491       73.35705834057049       52.57744279357139
C           40.84168804747656       73.76451411514600       53.42401608716840
C           39.71857919977383       73.99528614111352       51.19431133043631
H           37.06699576169761       71.61987894746089       53.56811166839322
H           38.13469347127533       71.74986363303366       50.83007554654594
H           39.55958393676315       71.40626361145353       53.50846757834825
H           40.36903498283419       71.41938947630597       51.96138527127054
H           38.72124537389278       73.72990030661229       53.07220189780405
H           40.77116809912613       73.37404150201525       54.43929170367872
H           41.76337895061179       73.38177513797366       52.98691959604800
H           40.93582735495514       74.84927231926565       53.47987665643207
H           39.75258764956931       75.08182251020327       51.26704394933704
H           40.61867742014763       73.67384721003624       50.67034052510903
H           38.86336857531230       73.73117819151550       50.57716394323183
N           37.82308340752196       69.14801296512960       52.85021564713120
C           37.75213807177506       67.69058016219695       52.88300433199981
C           36.88867345359922       67.21811823729082       51.73835795727121
O           37.12395094855415       66.17377668519016       51.16492710417678
C           37.17133537546130       67.17015691145261       54.19899415516254
C           37.94982337369265       67.57700101460368       55.44833239836168
C           37.23474973817869       67.16973716237818       56.74238418210782
C           37.79912928217131       67.84864639338551       57.98526939719884
N           36.90494651673175       67.68864552149786       59.17174138720157
H           37.62462705432937       69.65253858708954       53.72350015652138
H           38.77093517401853       67.30670740706843       52.73201480217643
H           36.14541401007438       67.54621062153747       54.27897427773241
H           37.07987787172743       66.07932726110923       54.15217343726258
H           38.96088639427368       67.15479285837874       55.42141124819528
H           38.09587155532912       68.66194962413827       55.45038887860091
H           36.16975479735105       67.41328634700349       56.66298820964020
H           37.26030537608600       66.08054413535446       56.86099064913336
H           37.93585167602586       68.91912093202029       57.78730351300340
H           38.79974664531759       67.45858061992418       58.20801820619189
H           37.30247562139571       68.12146104603060       60.01291523871171
H           35.98716616820992       68.13711901178145       58.98497452991804
H           36.73455203961257       66.69720751759158       59.37095652634866
N           35.80944754247030       68.02166050234757       51.45763734012714
C           34.74502374510389       67.54585316584419       50.58715398620912
C           34.90771129055680       68.06958072376317       49.17823338222260
O           34.38670902501367       67.45067402515758       48.27060001150019
C           33.37434142266200       67.87176416602472       51.15269910584701
H           35.52207884504588       68.72318175888554       52.15937928688687
H           34.86598057758092       66.45149070117006       50.52760725759934
H           32.57990961948716       67.49899470468921       50.50552623762552
H           33.24462978263872       67.43923698213213       52.14524795611900
H           33.25157211105189       68.94917550452774       51.25239125738396
N           35.60212459171639       69.24348582595620       48.95937879656367
C           35.45955839915852       69.92473513036727       47.67726493324910
C           36.78490517347381       70.38415027932322       47.11294563103290
O           36.80802688582931       70.92793217638318       46.02582357810306
C           34.48246031619958       71.08974022080700       47.79063822209463
C           33.12438062417062       70.70859633468420       48.40086270203743
C           32.29189779349603       71.95837271066752       48.67470171835445
C           32.35586587864353       69.71185185076153       47.53074111871493
H           35.76561004097808       69.90706763704512       49.72699050385844
H           35.05448756193427       69.18498041322613       46.97431425734929
H           34.94628062596018       71.85635602990716       48.41678127652398
H           34.33537569860123       71.55057086266250       46.80870174225708
H           33.32894053198597       70.22343121017914       49.37039769000461
H           32.78978887051030       72.62740804838681       49.37719534891880
H           32.11979530419846       72.51178322307332       47.75289455968910
H           31.31690896361349       71.70130191491118       49.08803528446532
H           32.87616641383291       68.75767497096112       47.44755266167999
H           32.22437631617935       70.10011938822512       46.52295464271239
H           31.36432414609810       69.51151767615673       47.93840894248304
N           37.92584160046473       70.17948604094782       47.84884997666462
C           39.22046527590305       70.67714760052192       47.41204733489899
C           40.02767383423608       69.56994346720704       46.78384307337814
O           40.16076101493362       68.51684282218622       47.37133356992383
C           39.98086402640895       71.28826494680972       48.56993633278136
C           41.24068998678374       71.97452423008636       48.14049418708968
O           41.22662425243299       72.73869906986772       47.08315677672908
N           42.35260199535052       71.79158783383207       48.92308698443615
H           37.91854032047324       69.76960467535126       48.79669213648414
H           39.02747993776632       71.44883058183295       46.65094364785271
H           40.21412217175376       70.49862894222049       49.28907989178484
H           39.35090171511234       72.00561582302564       49.09436800735752
H           42.39292530759600       71.24088704191988       49.76105376777245
H           43.15025261869739       72.40691558748188       48.83777368217432
N           40.58541164815341       69.80718249328729       45.54836974563755
C           41.07328341398583       68.70509147740086       44.73372882500152
C           42.29904624099293       69.11455538995723       43.94626632827350
O           42.52137664403631       68.61453472896672       42.86113300074638
C           39.96486718646152       68.17453858550597       43.81859618920581
C           38.64928068007752       67.89797757108870       44.55237017243131
C           38.71886167061530       66.73137491405849       45.54865962778076
C           37.64173398911228       66.80629809113366       46.62640440712504
N           36.25713815721150       66.67117952680645       46.09133289960510
H           40.40744320288901       70.69158258832809       45.05698851897130
H           41.38211852140385       67.91866292198317       45.43654353535410
H           39.80306375470352       68.92027369614017       43.03177959496430
H           40.31400431557167       67.27423879688635       43.30120134512869
H           37.84120633938571       67.72024583478448       43.83216683714243
H           38.35500368513982       68.80817293408607       45.08906253092045
H           38.65821043495807       65.77576715149699       45.01623678484590
H           39.70171719344827       66.73051970424150       46.03427156444866
H           37.80760067450208       66.03963156720653       47.39529138595017
H           37.73197501127267       67.76398542225792       47.15503262269199
H           35.56790918647418       66.88000526564413       46.84057690336990
H           36.08779026487915       67.33567516434748       45.32565437192014
H           36.07936085931809       65.72422669282591       45.73588854572902
N           43.13780306699248       70.05575087587066       44.50539612937239
C           44.12502496987271       70.70011981615959       43.65501658523007
C           45.33581603149204       71.18907699565975       44.42022796403163
O           46.05556320716305       72.02863390457179       43.91841280967905
C           43.49848145223018       71.79555721863633       42.80013008714911
C           42.84027622887602       72.90944657222836       43.58332146254434
O           42.58592203557180       72.77218811800360       44.87176390442833
O           42.50522810179671       73.93891966301879       42.92220571518629
H           42.79061741034155       70.65643520000981       45.26767162306828
H           44.48775553920448       69.90352468596065       42.98467748178865
H           44.26304021532829       72.23950958558579       42.15656719002271
H           42.74213116653111       71.35675391266396       42.14334493837077
N           45.60283940938042       70.58848103543801       45.62930963435218
C           46.91820203586976       70.72074484668644       46.26591587001187
C           47.08868573281205       72.10145974782174       46.86015624741451
O           48.02706713928890       72.81286990073329       46.56300216522074
C           48.04582944583819       70.38947846423912       45.29859796191603
C           47.96966908087738       68.97196293018479       44.81317346693347
O           47.65759857029335       68.09673278918393       45.59574511371117
N           48.27609533137939       68.72478005603251       43.50664445191188
H           45.05857761966519       69.76268895578772       45.90062148739155
H           46.96359459484631       69.99717216049059       47.09521071944201
H           47.99073324059450       71.08300341483941       44.45703183852240
H           49.01165416350914       70.56201645470662       45.78112152372851
H           48.54320344485818       69.44013526126301       42.86047507088269
H           48.24532722848485       67.79744815401169       43.14617937625211
N           46.13400221048561       72.48633452687946       47.76726065632541
C           46.12047478460903       73.80816602898032       48.35946826730305
C           45.21836696338365       73.77597651572367       49.57363814674201
O           44.72908384743175       72.72317607446008       49.92561159545184
C           45.70708964346871       74.85727871120528       47.32648226409184
C           44.33819007147077       74.59593594154674       46.75264805483041
O           43.40234197932165       74.09537115946542       47.52237524139741
O           44.10294103158141       74.89465550931079       45.50620419528041
H           45.30026704527069       71.92045380785423       47.95613806301385
H           47.14676764705270       74.00945315973490       48.70444410929838
H           45.72249695195809       75.85841162410563       47.76284482202691
H           46.42507333637915       74.85328106616380       46.50108973818819
N           44.98169819535562       74.95114785217534       50.24509647040538
C           44.25920026348402       74.95450940932591       51.50868069682957
C           42.94782304852978       75.68609013882924       51.34428314071601
O           42.47430511256056       76.31825069632878       52.26832637397621
C           45.10024968310210       75.55351146206935       52.62475657354554
C           46.40172174611204       74.80569578113054       52.81377609315037
O           46.39620042053264       73.90116060055163       53.64913283555760
O           47.34948912417532       75.15934564190842       52.11145106215282
H           45.50524704531794       75.80177273330375       50.03721928726323
H           44.04375300462922       73.90324727232161       51.75036286638794
H           44.53658989344562       75.54813139831245       53.56039743109784
H           45.31842399323943       76.59707875213361       52.39273477730595
N           42.33701000812044       75.59583596902134       50.11055036904589
C           41.40974207187551       76.61265466358915       49.67529170937262
C           40.50232239396131       76.08166890935290       48.61715493775694
O           40.95617186642399       75.30138453107645       47.70971691725657
C           42.17376166780826       77.83586118408401       49.17953251624712
O           43.20496083789997       77.48880990235688       48.29998592316074
H           42.81387175131696       75.13885171928511       49.31461239649138
H           40.79124092936723       76.89074399563985       50.53914844744958
H           41.50059135706585       78.54852731385908       48.68898250346675
H           42.63995273464661       78.36374605120822       50.01622342694222
H           42.82626082122519       77.16716046359750       47.44887811357165
N           39.19792280749812       76.48908656290976       48.64692357979180
C           38.33852159797179       76.26238825709702       47.51186872504888
C           38.46715563726677       77.38760540663689       46.51865941662206
O           38.01949025254717       78.48936340104449       46.75555359231590
C           36.89759193830153       75.97906950126202       47.89403789236875
C           36.76491291332223       74.76453947196462       48.81945186626113
C           35.32607644885107       74.59756654790570       49.28907088407590
C           37.26288716833707       73.48581320569276       48.14812812512840
H           38.95344190551692       77.27482005905766       49.24816141779240
H           38.76535302681848       75.36443650887746       47.04003377641795
H           36.47951821376273       76.87051505032345       48.37157173546833
H           36.30418152600405       75.80832100003565       46.99056179113680
H           37.39591203815533       74.95725616516664       49.70162249564409
H           35.23568693149924       73.75157790449933       49.96845788910684
H           34.96473501848919       75.48938575973766       49.80162933134876
H           34.67614511990914       74.40759585105307       48.43644810437019
H           38.31566420622666       73.55157818416993       47.87741011417462
H           37.13423933938795       72.62259053546266       48.80104036708193
H           36.70855329521786       73.28712540303738       47.23223603833051
N           39.13460399815152       77.02619307433851       45.37532287648962
C           39.24905094331776       77.85734062536908       44.19991670421558
C           37.88385747627576       78.19536863403529       43.66490923328556
O           36.94457505474796       77.46279948417107       43.87892496155768
C           40.08196945080042       77.15459539540146       43.12681139613349
C           41.54629911592041       77.01177618949579       43.50539247676050
C           41.73638953758590       76.38155671791127       44.87345525622558
O           41.33975801186719       75.13276606588398       45.02484979516103
O           42.24976720915426       77.07525497312190       45.77261170171834
H           39.36140544808244       76.03197297498234       45.22360133110657
H           39.74831793666620       78.78728847380047       44.50641123291501
H           39.64711565112770       76.16492461827406       42.95256645423508
H           39.98715334460449       77.69616096820107       42.17832723027136
H           42.08220453433376       76.40385576171347       42.76870770993715
H           42.02494604397602       77.99255513062361       43.51139327957216
N           37.82289787621961       79.33604885370528       42.90498464824513
C           36.56286501377094       79.86679457646179       42.39506326308882
C           35.78415307730740       78.81882081223897       41.63347714890858
O           34.58339445326727       78.94251919550850       41.51839567775619
C           36.80998333721620       81.12461189980353       41.53179748331964
C           35.50018095712137       81.75744276108360       41.02484053573440
C           37.73861923494521       80.79404431033906       40.36439716499692
C           34.61319371319421       82.31244149682729       42.12625532017819
H           38.61127193896321       79.99190036395110       42.96747567041772
H           35.95870486185182       80.13543351925519       43.27019637675686
H           37.31417145902269       81.86569905622332       42.17400555309500
H           35.74370068599965       82.55408328629963       40.31114112548888
H           34.95432138677896       81.00462591635618       40.44408204454925
H           33.71549950803546       82.78793053180161       41.72577947746834
H           35.14415572399606       83.06128635220661       42.71561406806162
H           34.28550824880150       81.52771408154440       42.80910805779300
H           38.67833210541809       80.36201018617180       40.70955527763103
H           37.27092940647172       80.06846098865805       39.69919216849780
H           37.97423304826195       81.68038393840696       39.77434552079193
N           36.47435719086257       77.78102319595796       41.06176849177594
C           35.80911290749689       76.79156620600978       40.21636340787233
C           35.39506406063994       75.56404256368825       40.99924494789554
O           34.45453069891957       74.90633196714674       40.60250795216320
C           36.66310051307150       76.40944974825902       39.02330306140902
H           37.48432671060636       77.67754098098469       41.20615668679292
H           34.88272136114742       77.27326963443565       39.86650738785522
H           36.14055626449764       75.70605639901049       38.37410985577187
H           36.93549332482094       77.28594597519849       38.43520559265573
H           37.58405030615853       75.93161245336546       39.35537354401965
N           36.12134514445727       75.23909874387890       42.12613854349966
C           35.60069959671470       74.24920769428631       43.06363703259796
C           34.32726065897607       74.77625193224029       43.68169656874784
O           33.42772373615487       74.02386912516833       43.99508084016344
C           36.62683667734959       73.90994610942059       44.14433220653884
C           37.91105591200842       73.31204910413869       43.59158431261435
C           39.02971807170109       73.27603669266321       44.60538347230964
O           38.98357857333889       74.04416501095795       45.65511863859898
O           40.05622559232494       72.49937716758684       44.36818336552439
H           36.60714636398176       76.00423779370249       42.62050278457048
H           35.35502099987308       73.35071857757818       42.48094027542599
H           36.86939687186602       74.82825582398924       44.68972529376376
H           36.18593707477838       73.22995584545852       44.88164487157143
H           38.24952408809541       73.89624052215193       42.73137567680095
H           37.73292031690186       72.29947291728722       43.21843570962616
N           34.29961520805303       76.13311190215543       43.87752793567682
C           33.20477335708554       76.81120278221252       44.54559758136264
C           32.00437586460809       76.90761903959631       43.63409447939604
O           30.90395896518098       76.59963701812781       44.04439052103124
C           33.65532853311360       78.19766664478962       45.05604328759451
C           32.46761990920461       79.00097306355303       45.56805386745674
C           34.74570972581370       78.05482581679009       46.11698616079877
H           35.15828608805734       76.69130576306667       43.74311273327210
H           32.91981710664890       76.18692666224173       45.40201678076653
H           34.08051252692228       78.72966238560038       44.18782800003993
H           31.75001991927117       79.18135238525848       44.76871812966110
H           31.95485795047347       78.44951003599802       46.35262265063623
H           32.76553989346590       79.96716465195929       45.97434872500754
H           35.01316874721525       79.01494266608211       46.55599025288682
H           34.40770885011464       77.41235209688477       46.92932116536846
H           35.65697198811312       77.62316835105817       45.69992317295782
N           32.21562927569405       77.39039346847497       42.36971400738379
C           31.11243830533599       77.60424451954381       41.44378153982876
C           30.58536315970323       76.27025722012696       40.97219286331272
O           29.45685649845363       76.18135113771137       40.53138887575269
C           31.53396869699683       78.53568559840117       40.28561286614393
C           31.89583695567789       79.94679056918335       40.79701501679877
C           30.49075194587624       78.59240772321044       39.17622918903602
C           30.72779305870418       80.74695617262569       41.35510254425482
H           33.12795639759566       77.77095646086025       42.08450170512670
H           30.30502821814983       78.08116292183415       42.01010552076560
H           32.44768385665409       78.08453066009292       39.86260186439494
H           32.36629891912191       80.50983806933735       39.98160435657618
H           32.67169872442847       79.85346363149500       41.56584589384691
H           30.27707667193758       77.59756836016464       38.78305229435060
H           30.81767803966224       79.22166340936056       38.34776170564476
H           29.55641827542102       78.99923789306941       39.55553195413965
H           31.04989593244003       81.70819838726672       41.76055953380059
H           30.22389560315791       80.21342139805573       42.15975601892670
H           29.98034890108562       80.96205748569758       40.59097923773064
N           31.43434798528771       75.19399577820334       41.05753468718024
C           31.07471935867800       73.90793851872377       40.47575721332240
C           30.30499604236607       73.09248066503683       41.48321971634147
O           29.24022513616594       72.58800784238205       41.18750755427670
C           32.29552798073412       73.14394033637080       39.96389500930587
C           31.92635528717356       71.98918853063084       39.10000736061343
N           31.98668467642558       71.99727422842157       37.74878670535683
C           31.42151145032375       70.77835329988751       39.53580539690792
C           31.54955833027028       70.82283330632053       37.35853564282193
N           31.18896104811617       70.03148163678587       38.42226608878889
H           32.44519830243708       75.32031043071206       41.22852260930141
H           30.40234730128622       74.12147849241099       39.63213128585668
H           32.95455557635357       73.81374208657783       39.40349738309098
H           32.88861861465566       72.79948742455069       40.81535529703540
H           31.22914119136474       70.49000092246239       40.55773414268457
H           31.48308259898365       70.52639852538437       36.31931353119819
H           30.82361123788952       69.07933013728294       38.38598160585553
N           30.87684888457667       72.94949194661810       42.72199040230914
C           30.12938017954649       72.37747052203314       43.82351503622134
C           28.92837885376179       73.23655452514828       44.14503699275072
O           27.95356593518585       72.72220240404232       44.65334749036538
C           31.00696402000946       72.18806113861422       45.04211560225389
H           31.72678699162855       73.45691471316144       43.00152649471634
H           29.75751526780980       71.40666419296122       43.46123642275955
H           31.85206649985898       71.53890948935057       44.81391571016618
H           30.44379194541202       71.76524314515669       45.87468802022298
H           31.41416623783843       73.14864589663203       45.35601624956379
N           29.00556007929447       74.57641020202554       43.84830741266731
C           27.83307630794219       75.41235977409461       43.94906328868947
C           26.75544759178391       74.94266890983678       43.03083572325600
O           25.63484450837886       74.77449388296600       43.45933156399916
H           29.75715120315639       74.92726383500927       43.22682421803565
H           27.46308825041817       75.35511633100376       44.97796615785429
H           28.08251272074621       76.45368644988697       43.73541903762166
N           27.09108796727548       74.71480121386828       41.72246873807669
C           26.11979349500699       74.20416136799957       40.76445057985230
C           25.46936961875895       72.95660891297430       41.32343494775886
O           24.30769040587585       72.69711175116400       41.08340324460146
C           26.77867336212015       73.91872131881807       39.42768181943611
H           27.98396773948092       75.05773325347529       41.33841314272897
H           25.34453528910603       74.97745849345964       40.65753410416061