256
 energy: -429.948120224516 gnorm: 0.000889729420 xtb: 6.7.0 (a73499f)
N           -2.35332356720262        4.14807944017671        5.21591462429501
C           -1.74897632442667        3.07208094511457        4.42257469981099
C           -2.52172361353966        1.78061475730544        4.69124565150906
O           -2.81551985993517        1.44931373840136        5.82811166876127
C           -0.27268938066843        2.82222569875286        4.79527626821376
C            0.50780497096054        4.10747841592805        4.74442975811339
C            1.05899679046005        4.65009745431209        5.89734352146528
C            0.63673776237251        4.80100827011496        3.54508982477646
C            1.73095290604015        5.85973507345296        5.85432011050475
C            1.30046693555218        6.01395928733852        3.50238021880559
C            1.84865444362002        6.54441582299145        4.65883277439805
H           -1.62742156033749        4.73240801092715        5.62878898016824
H           -1.80334991943946        3.34124306657676        3.36211464077150
H           -0.22932983261150        2.39279766331046        5.79994364231887
H            0.13796892749501        2.09905411063274        4.09004647775054
H            0.95985047955252        4.12363877883992        6.83810182642604
H            0.19904085495497        4.39006624607756        2.64768691207363
H            2.15147772923049        6.27153603324155        6.76130389542958
H            1.37803434921865        6.55634212427697        2.57121558085166
H            2.35987232450590        7.49544389175056        4.62718495973761
H           -2.88216656935255        3.73267021441303        5.97997838565678
H           -2.74674649414010        5.27141934928656        4.09589088541454
N           -2.83512799043287        1.07069229953649        3.60119946861076
C           -3.45581641868760       -0.23657715548216        3.62807080816061
C           -2.80994392635755       -1.01360448817589        2.47967391568650
O           -2.57468909723438       -0.43851390452356        1.43098521761368
C           -4.98268403116157       -0.16648100432009        3.36938623729784
C           -5.64504997030774        0.80265042797725        4.35530644471411
C           -5.58970292083936       -1.56450065455209        3.46131066294628
C           -7.11380709612172        1.06678276952638        4.04338765511151
H           -2.56615820775621        1.38234152584666        2.67523770163430
H           -3.26292607526685       -0.68721746727867        4.60598996717439
H           -5.12234907178491        0.21919874320159        2.35319617149119
H           -5.54577832151461        0.40717564972302        5.36795077352664
H           -5.11412175404670        1.75498998827897        4.32255406659780
H           -5.15971385887455       -2.23985879504704        2.72636888395829
H           -5.43407672653363       -1.98078908867498        4.45540769369728
H           -6.65874287735387       -1.52262801702894        3.27338512134869
H           -7.49740333338371        1.84887835221937        4.69540946952083
H           -7.22871271472512        1.39367847655837        3.01210720826968
H           -7.71976973606610        0.17701961354826        4.19289150366986
N           -2.49640497122198       -2.29606744732572        2.70384161126141
C           -2.04578844210967       -3.13443444815062        1.59955570178619
C           -3.28881004830748       -3.42196885678585        0.73926396918534
O           -4.32351489237047       -3.81038518307013        1.26711592749485
C           -1.39603905835765       -4.41111872507184        2.12767802477874
C           -0.38505252033095       -4.99540990871771        1.12147238259292
O           -0.52906928358664       -4.65313450490720       -0.09119816386741
O            0.46974163384948       -5.78809463836981        1.52136555549260
H           -2.86419244801558       -2.77472805328360        3.51122848328929
H           -1.31828445912018       -2.55362661883910        1.02466785291898
H           -0.85336912988108       -4.20442835861053        3.05183841621348
H           -2.15285169540062       -5.17335548615162        2.33913424392029
N           -3.18134638234488       -3.13681599525127       -0.55849888813368
C           -4.29126503600459       -3.29651962415424       -1.47383416605440
C           -4.12230571962534       -4.59661184998589       -2.25675071967540
O           -4.97229713342239       -5.47476119185834       -2.28572042253454
C           -4.38124402829586       -2.09201979390273       -2.44226941817456
O           -3.16863722245233       -1.99905510766439       -3.13264572979017
C           -4.73905585878384       -0.81581066172160       -1.67953101329917
H           -2.28188190719144       -2.89754625058178       -0.97840127588527
H           -5.20961299144149       -3.36671400864845       -0.88145413752366
H           -5.19797590672383       -2.31278930708450       -3.15684165379872
H           -3.11337618981076       -1.11405336971361       -3.58483207281332
H           -5.77834781925709       -0.84771973693084       -1.36070596246090
H           -4.58848226808740        0.03898048469373       -2.33456399302740
H           -4.10744726095266       -0.70281963998032       -0.80199666235099
N           -2.94117375433822       -4.68778119186445       -2.87611725267949
C           -2.55721223121903       -5.87540745560137       -3.59315835144463
C           -2.10369703065410       -7.03039183966861       -2.66416330101882
O           -2.00036390672860       -8.15459814741240       -3.11182886739102
C           -1.48415607863222       -5.54620366471881       -4.63394060651054
C           -0.38216143966541       -4.73652300369637       -3.96596087942538
O            0.18986850848351       -5.17825438014796       -2.96910670601722
N           -0.08166833007258       -3.56617093866302       -4.52405484991785
H           -2.31995293299866       -3.88552240119586       -2.84920584544889
H           -3.45070569854552       -6.27110137488264       -4.09787237183153
H           -1.06665802337333       -6.48631813024240       -4.99974197268806
H           -1.91745555219082       -4.99192138975294       -5.46644338137616
H           -0.69759211643274       -3.09910335758912       -5.16904896790039
H            0.61469509651570       -2.99439697151599       -4.05074368626889
N           -1.94942782999491       -6.69157550954280       -1.37647434415822
C           -1.73705726654104       -7.66971013891546       -0.32666009872471
C           -0.57922292979783       -8.63290609607007       -0.65418492560749
O           -0.64433314421061       -9.83992890579468       -0.58052528819431
C           -3.04905819253624       -8.38682135420582        0.02499741481373
C           -3.80498814894100       -7.45909145245391        0.96362375618629
O           -3.58703363610130       -7.43479131941246        2.16188038195730
N           -4.69474810819419       -6.63882434836584        0.37719776524603
H           -1.78963182052412       -5.71865920786151       -1.13469688957563
H           -1.40624428327819       -7.12706781534187        0.56563355957962
H           -3.60838938102361       -8.60664676394675       -0.88253782329482
H           -2.80018802853324       -9.31658430234834        0.53680434363360
H           -4.77912854118119       -6.56080071004736       -0.62677099836412
H           -5.02851257595571       -5.84962060004759        0.91541180127262
N            0.53527422221427       -7.93613698907929       -0.93955707303903
C            1.82585592968870       -8.51876555286230       -1.19392427780863
C            2.73940702107851       -8.59766122556490        0.04372946961668
O            3.77745737945930       -9.24745528151919       -0.01389436472765
C            2.54975781238796       -7.73951385094194       -2.29948254472109
C            2.61789457334246       -6.23676439598106       -1.99042083105259
O            2.34229157551246       -5.87136594789548       -0.80703658669934
O            2.91803296790287       -5.43917907862489       -2.88432338654080
H            0.50666058417685       -6.92320090316654       -0.91881285645331
H            1.66050102374876       -9.55390369432867       -1.51942375955470
H            3.56415721115680       -8.12589527266794       -2.41735363828446
H            2.02708801699951       -7.84919721328641       -3.25063040402712
N            2.31758938575450       -7.96221067503450        1.13875352801571
C            3.06723251329929       -7.95112299491853        2.36549742196929
C            3.75287399652603       -6.63044533074065        2.72818082091492
O            4.41132018005044       -6.53888660831890        3.75032525760562
H            1.51632782656784       -7.33542253842852        1.09899898309028
H            2.40917608125529       -8.21586593794332        3.19925050523688
H            3.85341819322645       -8.71001038382380        2.29139091106495
N            3.57721529013944       -5.62790314052183        1.86018639111762
C            4.27959822894270       -4.37877392140192        1.96760687003257
C            3.31096869770792       -3.24041691528428        1.67092781504020
O            2.20184940708148       -3.44336421231615        1.18279903745187
C            5.45467675680866       -4.31098023781941        0.93826228894761
C            6.07674342801968       -5.65950750861630        0.82828373188713
C            5.59548189298610       -6.65902730525671        0.03180711747136
C            7.09091380034442       -6.24795069843442        1.64159445492613
N            6.25504448883097       -7.82877102536328        0.27187838069197
C            7.15774295751956       -7.61799592542507        1.27201707957022
C            7.94083906243800       -5.76772287088496        2.63551992140191
C            8.05048287946849       -8.49084400127217        1.87884328345284
C            8.82287237412595       -6.64059596085819        3.23161748444487
C            8.87729714366456       -7.98625210885892        2.85993059050769
H            2.99928001695106       -5.74553851612140        1.03466103784128
H            4.67560599398590       -4.32127299362180        2.98881319522274
H            5.04091611645029       -4.02241461557904       -0.02991735227262
H            6.17810784305429       -3.56022286236948        1.25906734618676
H            4.82221114645639       -6.60135557051755       -0.70856445651682
H            5.90254332508211       -8.72156867937442       -0.03906552574794
H            7.90354418938803       -4.73026467842696        2.93473402184921
H            8.08679278830545       -9.53294824168814        1.59404730080798
H            9.48660355118903       -6.28615850498938        4.00867592620545
H            9.57986019794049       -8.64194809621837        3.35623979394337
N            3.74890749135475       -2.01572694968188        1.99876435521575
C            3.08326782099068       -0.80012828380203        1.56630301533648
C            3.95228973079650       -0.18473299401630        0.46208374913833
O            5.09919441286320        0.17965605486062        0.67191648478920
C            2.92120797337139        0.18398363386866        2.73427630126587
C            2.08421122109745       -0.42579460897064        3.86817563715848
C            2.34034044120257        1.50305097942697        2.22779298836886
C            0.70926735702933       -0.93643008385083        3.44519361157259
H            4.70757128112655       -1.89504088849861        2.29360320499885
H            2.11260696416511       -1.08093245293681        1.15867757920889
H            3.92395162476188        0.39155215664735        3.12874841758582
H            2.64050553112610       -1.25759091937046        4.30614843245728
H            1.96424524580001        0.33528845417707        4.64404475418342
H            1.35367931447193        1.36185991023510        1.79723538290475
H            2.27065150037140        2.22352839416294        3.04028828374553
H            2.98475537999956        1.92308875059712        1.46067521434502
H            0.14608369349539       -1.24215741040980        4.32502654775117
H            0.13798667134551       -0.16643661945040        2.93352939694656
H            0.79789556989087       -1.79503588356095        2.78512399695832
N            3.33944670520111       -0.08132393657548       -0.72219247956171
C            4.03096405444674        0.40285829894329       -1.89251365823514
C            2.98420183663948        0.81981776784659       -2.92146246572471
O            1.79138654249997        0.68176860035471       -2.74685370001655
C            5.02817171583594       -0.63681054803559       -2.45087123508822
C            4.36818321949566       -1.75086872746846       -3.25948700515218
C            3.28928499543632       -2.48019336509133       -2.45682248631421
O            3.57578987224194       -2.93784916227205       -1.32891557012081
O            2.15179004137928       -2.58237395719037       -2.96807047270794
H            2.42873987939716       -0.51748041864621       -0.86485271039460
H            4.60763027772958        1.28568490234411       -1.58270781710333
H            5.77312020348464       -0.12977400850135       -3.07095811713500
H            5.54324259356483       -1.07231821761130       -1.59308183475842
H            3.90703223044527       -1.36409307262149       -4.16929041797235
H            5.11907913713480       -2.49385245155765       -3.53437264319368
N            3.48250756432553        1.35846271248376       -4.05133020488676
C            2.58271032632385        1.75004975730212       -5.11399517913700
C            1.46953670697909        2.66847532912219       -4.57629579945347
O            1.72027273452709        3.61053684653623       -3.83531124336519
H            4.46751232308200        1.53820847127692       -4.13874120684680
H            3.14768396019589        2.29727240401393       -5.87023259260302
H            2.12554776055947        0.86363518729459       -5.56458062954502
N            0.26600574977485        2.37373352561873       -5.06305812275381
C           -0.92341995726311        3.12285338996968       -4.71183442860087
C           -1.12967579402968        3.28056375671107       -3.20667117604480
O           -1.66675266501932        4.27734688351602       -2.73716662825047
C           -2.14492114142973        2.39059955563408       -5.28827052485892
C           -2.12146523151904        0.86993126948883       -4.91601182347185
O           -3.08719434415793        0.42947759932186       -4.28091335901633
O           -1.12002354255545        0.23028441195420       -5.30465399506713
H            0.00567871319462        1.39674482906375       -5.35131175217928
H           -0.85187489373066        4.13792223524315       -5.12925031426141
H           -3.06275746783623        2.84225755739244       -4.91132338177009
H           -2.12660618392575        2.46654661806629       -6.37839823394568
N           -0.72560150511864        2.24521683452392       -2.47211899491841
C           -0.97471696303453        2.13851231600944       -1.05370955647506
C           -0.33703046800889        3.27280795461745       -0.25387011283848
O           -0.72842412719294        3.55548379797714        0.86863439075229
C           -0.40255258200823        0.81344967001563       -0.55385955936528
C           -1.04513353711968       -0.37557611133877       -1.25342806500410
C           -0.19211654492468       -1.62179296421046       -1.21128113683377
O            0.88936465029210       -1.63718899786768       -0.56897559390544
O           -0.61639439879625       -2.64260660599817       -1.80960956928996
H           -0.18681046678732        1.49499544582971       -2.88748921295946
H           -2.05651052030981        2.17632438113793       -0.87028364790017
H            0.67151360929103        0.81319666771244       -0.73862510309997
H           -0.57838579911293        0.73051264868950        0.51867843058788
H           -1.99298763818104       -0.60776531968727       -0.76979030404090
H           -1.25992625747182       -0.18389183212842       -2.30435717891189
N            0.69917282467288        3.87667484331437       -0.85080113156752
C            1.39090682122326        4.99803068181537       -0.26489231669218
C            0.55212983845882        6.28599183599022       -0.22119735414849
O            0.95841964220777        7.25605335769376        0.39842608444806
C            2.67561592588314        5.27058690379273       -1.04669964370695
C            3.72305307098107        4.16349224663459       -0.87809024502415
C            4.70404461427786        4.21065826625467       -2.04802685757802
C            4.46643874483724        4.29076212550751        0.44911799829303
H            0.94825917458560        3.64159255447703       -1.80509000236209
H            1.62647989032375        4.75648177465646        0.77906389341376
H            2.41000297861475        5.35109767670124       -2.10294274324169
H            3.08659871485333        6.22676265789161       -0.71835786805865
H            3.20533978589315        3.19865647623276       -0.90130761103703
H            5.18148789785118        5.18756603334564       -2.09989741158005
H            4.17175932856356        4.03477015261066       -2.97959388516898
H            5.48191310037820        3.45759775044317       -1.93159916716712
H            5.07374758050165        5.19416059377462        0.45556446090922
H            5.11840664559894        3.43333257375408        0.60519821446010
H            3.77079935871696        4.34440920532380        1.28276279268192
N           -0.61390454367474        6.26077577574220       -0.87345966890466
C           -1.46436979486981        7.43017895420143       -0.98071472796159
C           -1.48700440275123        8.24360895356743        0.31892988201909
O           -1.37590313279212        9.45392933541172        0.31949120893704
C           -2.88050568565211        6.96752362602383       -1.33861686943459
C           -3.89690580664938        8.10478792119751       -1.47721690847289
C           -3.51611033951724        9.06892906566326       -2.59846872662803
C           -5.28128145734199        7.51162732712580       -1.73508191700333
H           -0.89177316758952        5.46355106707795       -1.44216897847825
H           -1.07036915671160        8.09628237952784       -1.76012124069094
H           -2.82893235375344        6.40218972547122       -2.27127951922611
H           -3.22048729722213        6.28134236523571       -0.55983942869217
H           -3.92610952932919        8.66684370200584       -0.53763512222940
H           -2.61636366918012        9.61837737276200       -2.33717608238694
H           -4.31495692476069        9.78958074660096       -2.76483519345824
H           -3.34362043410286        8.52470841952596       -3.52496099616236
H           -6.02773326382431        8.29901540246671       -1.82202465364376
H           -5.57231074814983        6.85038040801390       -0.92220458698403
H           -5.27737510067155        6.93565702968027       -2.65813717552869
N           -1.77489396425613        7.51358641711642        1.41249730414775
C           -1.80062934665799        8.08895875452576        2.73865878823746
C           -1.98211833342707        7.01006973545041        3.79674898931102
O           -2.69291913650503        5.98857636213072        3.37272849000231
C           -2.96881807050292        9.07640763681532        2.88051787874358
H           -1.78204258533967        6.50639704671808        1.34992650045446
H           -0.86038497111531        8.62073241582382        2.93184111297381
H           -2.98120711487185        9.49133804580913        3.88502827554180
H           -2.83958160011073        9.87601777657255        2.15691849356440
H           -3.90951248941130        8.56433478773640        2.68934092366586
O           -1.56674842955031        7.11946571510295        4.92636436120526
La           1.38012543387021       -3.90595729610382       -1.15746324269965
